<?xml version="1.0"?>
<VTKFile type="UnstructuredGrid" version="0.1" byte_order="LittleEndian" compressor="vtkZLibDataCompressor">
  <UnstructuredGrid>
    <FieldData>
      <DataArray type="Float64" Name="TIME" NumberOfTuples="1" format="ascii" RangeMin="0" RangeMax="0">
        0
      </DataArray>
    </FieldData>
    <Piece NumberOfPoints="412" NumberOfCells="0">
      <PointData>
        <DataArray type="Float64" Name="ID" format="ascii" RangeMin="1" RangeMax="958">
          1 187 373 373 373 559
          745 32 218 404 590 218
          404 404 590 404 590 590
          776 63 249 249 435 249
          435 435 621 125 311 311
          497 311 497 497 683 156
          342 342 528 342 528 528
          714 2 188 374 188 374
          560 33 219 219 405 219
          405 405 591 3 189 189
          375 375 561 189 375 375
          561 375 561 561 747 34
          220 220 406 220 406 406
          592 4 35 221 407 407
          593 407 593 593 779 66
          5 191 6 192 37 223
          223 223 409 409 595 409
          595 595 781 68 254 254
          440 254 440 440 626 7
          193 379 193 379 379 565
          8 194 194 380 194 380
          566 566 752 39 225 225
          225 411 411 597 9 195
          381 381 567 381 567 567
          753 40 226 226 412 226
          412 412 598 71 257 257
          443 257 443 443 629 288
          474 474 660 474 660 660
          846 133 319 319 319 505
          505 319 505 505 691 505
          691 691 877 11 12 13
          199 199 385 385 571 16
          202 202 388 202 388 388
          574 47 233 233 419 233
          419 419 605 78 264 264
          450 264 450 450 636 17
          18 390 49 235 421 421
          607 421 607 607 793 266
          452 452 638 452 638 638
          824 328 19 205 205 391
          391 577 391 577 577 763
          50 236 236 422 236 422
          422 608 20 206 206 392
          206 392 392 578 21 22
          208 394 208 394 394 580
          23 209 209 395 395 581
          209 395 395 581 395 581
          581 767 54 240 240 426
          240 426 426 612 29 215
          215 401 215 401 401 587
          33 219 405 405 591 405
          591 591 777 64 250 436
          436 622 436 622 622 808
          281 467 467 653 467 653
          653 839 126 312 312 498
          312 498 498 684 157 343
          343 529 343 529 529 715
          529 715 715 901 66 252
          252 438 252 438 438 624
          36 222 222 408 222 408
          408 594 59 245 431 245
          431 431 617 431 617 617
          803 90 276 276 462 276
          462 462 648 152 338 338
          524 338 524 524 710 183
          369 555 555 741 555 741
          741 214 400 400 586 400
          586 586 772 586 772 772
          958 62 64 95
        </DataArray>
        <DataArray type="Float64" Name="Type" format="ascii" RangeMin="0" RangeMax="0">
          0 0 0 0 0 0
          0 0 0 0 0 0
          0 0 0 0 0 0
          0 0 0 0 0 0
          0 0 0 0 0 0
          0 0 0 0 0 0
          0 0 0 0 0 0
          0 0 0 0 0 0
          0 0 0 0 0 0
          0 0 0 0 0 0
          0 0 0 0 0 0
          0 0 0 0 0 0
          0 0 0 0 0 0
          0 0 0 0 0 0
          0 0 0 0 0 0
          0 0 0 0 0 0
          0 0 0 0 0 0
          0 0 0 0 0 0
          0 0 0 0 0 0
          0 0 0 0 0 0
          0 0 0 0 0 0
          0 0 0 0 0 0
          0 0 0 0 0 0
          0 0 0 0 0 0
          0 0 0 0 0 0
          0 0 0 0 0 0
          0 0 0 0 0 0
          0 0 0 0 0 0
          0 0 0 0 0 0
          0 0 0 0 0 0
          0 0 0 0 0 0
          0 0 0 0 0 0
          0 0 0 0 0 0
          0 0 0 0 0 0
          0 0 0 0 0 0
          0 0 0 0 0 0
          0 0 0 0 0 0
          0 0 0 0 0 0
          0 0 0 0 0 0
          0 0 0 0 0 0
          0 0 0 0 0 0
          0 0 0 0 0 0
          0 0 0 0 0 0
          0 0 0 0 0 0
          0 0 0 0 0 0
          0 0 0 0 0 0
          0 0 0 0 0 0
          0 0 0 0 0 0
          0 0 0 0 0 0
          0 0 0 0 0 0
          0 0 0 0 0 0
          0 0 0 0 0 0
          0 0 0 0 0 0
          0 0 0 0 0 0
          0 0 0 0 0 0
          0 0 0 0 0 0
          0 0 0 0 0 0
          0 0 0 0 0 0
          0 0 0 0 0 0
          0 0 0 0 0 0
          0 0 0 0 0 0
          0 0 0 0 0 0
          0 0 0 0 0 0
          0 0 0 0 0 0
          0 0 0 0 0 0
          0 0 0 0 0 0
          0 0 0 0 0 0
          0 0 0 0 0 0
          0 0 0 0
        </DataArray>
        <DataArray type="Float64" Name="Radius" NumberOfComponents="3" format="ascii" RangeMin="0.83645083538" RangeMax="1.7075128111">
          1.15 0.5 0.69 1.15 0.5 0.69
          1.15 0.5 0.69 0.575 0.5 0.345
          1.15 0.5 0.69 0.575 0.5 0.345
          0.575 0.5 0.345 1.15 0.5 0.69
          1.15 0.5 0.69 0.575 0.5 0.345
          0.575 0.5 0.345 1.15 0.5 0.69
          1.15 0.5 0.69 0.575 0.5 0.345
          0.575 0.5 0.345 1.15 0.5 0.69
          1.15 0.5 0.69 0.575 0.5 0.345
          0.575 0.5 0.345 1.15 0.5 0.69
          1.15 0.5 0.69 0.575 0.5 0.345
          0.575 0.5 0.345 1.15 0.5 0.69
          1.15 0.5 0.69 0.575 0.5 0.345
          0.575 0.5 0.345 1.15 0.5 0.69
          1.15 0.5 0.69 0.575 0.5 0.345
          0.575 0.5 0.345 1.15 0.5 0.69
          1.15 0.5 0.69 0.575 0.5 0.345
          0.575 0.5 0.345 1.15 0.5 0.69
          1.15 0.5 0.69 0.575 0.5 0.345
          0.575 0.5 0.345 1.15 0.5 0.69
          1.15 0.5 0.69 0.575 0.5 0.345
          0.575 0.5 0.345 1.4 0.5 0.84
          1.4 0.5 0.84 0.7 0.5 0.42
          1.4 0.5 0.84 1.4 0.5 0.84
          0.7 0.5 0.42 1.4 0.5 0.84
          1.4 0.5 0.84 0.7 0.5 0.42
          0.7 0.5 0.42 1.4 0.5 0.84
          1.4 0.5 0.84 0.7 0.5 0.42
          0.7 0.5 0.42 1.15 0.5 0.69
          0.575 0.5 0.345 1.15 0.5 0.69
          1.15 0.5 0.69 0.575 0.5 0.345
          0.575 0.5 0.345 1.15 0.5 0.69
          1.15 0.5 0.69 0.575 0.5 0.345
          0.575 0.5 0.345 1.15 0.5 0.69
          1.15 0.5 0.69 0.575 0.5 0.345
          0.575 0.5 0.345 1.15 0.5 0.69
          1.15 0.5 0.69 0.575 0.5 0.345
          0.575 0.5 0.345 1.15 0.5 0.69
          1.15 0.5 0.69 0.575 0.5 0.345
          0.575 0.5 0.345 1.2 0.5 0.72
          1.2 0.5 0.72 1.2 0.5 0.72
          1.2 0.5 0.72 0.6 0.5 0.36
          0.6 0.5 0.36 1.2 0.5 0.72
          1.2 0.5 0.72 0.6 0.5 0.36
          0.6 0.5 0.36 1.2 0.5 0.72
          1 0.5 0.6 1 0.5 0.6
          1.4 0.5 0.84 1.4 0.5 0.84
          1.4 0.5 0.84 0.7 0.5 0.42
          1.4 0.5 0.84 1.4 0.5 0.84
          1.4 0.5 0.84 0.7 0.5 0.42
          0.7 0.5 0.42 1.4 0.5 0.84
          1.4 0.5 0.84 0.7 0.5 0.42
          0.7 0.5 0.42 1.4 0.5 0.84
          1.4 0.5 0.84 0.7 0.5 0.42
          0.7 0.5 0.42 1.4 0.5 0.84
          1.4 0.5 0.84 0.7 0.5 0.42
          0.7 0.5 0.42 1.15 0.5 0.69
          0.575 0.5 0.345 0.575 0.5 0.345
          1.15 0.5 0.69 1.15 0.5 0.69
          0.575 0.5 0.345 0.575 0.5 0.345
          1.2 0.5 0.72 0.6 0.5 0.36
          1.2 0.5 0.72 0.6 0.5 0.36
          1.2 0.5 0.72 1.2 0.5 0.72
          1.2 0.5 0.72 0.6 0.5 0.36
          0.6 0.5 0.36 1.2 0.5 0.72
          1.2 0.5 0.72 0.6 0.5 0.36
          1.2 0.5 0.72 1.2 0.5 0.72
          0.6 0.5 0.36 0.6 0.5 0.36
          1.3 0.5 0.78 1.3 0.5 0.78
          1.3 0.5 0.78 0.65 0.5 0.39
          0.65 0.5 0.39 1.3 0.5 0.78
          1.3 0.5 0.78 0.65 0.5 0.39
          0.65 0.5 0.39 1.3 0.5 0.78
          1.3 0.5 0.78 0.65 0.5 0.39
          0.65 0.5 0.39 1.3 0.5 0.78
          1.3 0.5 0.78 0.65 0.5 0.39
          0.65 0.5 0.39 1.3 0.5 0.78
          1.3 0.5 0.78 0.65 0.5 0.39
          0.65 0.5 0.39 1.3 0.5 0.78
          1.3 0.5 0.78 0.65 0.5 0.39
          0.65 0.5 0.39 1.3 0.5 0.78
          1.3 0.5 0.78 0.65 0.5 0.39
          0.65 0.5 0.39 1.3 0.5 0.78
          1.3 0.5 0.78 0.65 0.5 0.39
          0.65 0.5 0.39 1.3 0.5 0.78
          1.3 0.5 0.78 0.65 0.5 0.39
          1.3 0.5 0.78 1.3 0.5 0.78
          0.65 0.5 0.39 1.3 0.5 0.78
          1.3 0.5 0.78 0.65 0.5 0.39
          0.65 0.5 0.39 1.3 0.5 0.78
          1.3 0.5 0.78 0.65 0.5 0.39
          0.65 0.5 0.39 1.2 0.5 0.72
          1.15 0.5 0.69 1.2 0.5 0.72
          0.6 0.5 0.36 1.2 0.5 0.72
          1.2 0.5 0.72 0.6 0.5 0.36
          0.6 0.5 0.36 1.3 0.5 0.78
          1.3 0.5 0.78 0.65 0.5 0.39
          0.65 0.5 0.39 1.3 0.5 0.78
          1.3 0.5 0.78 0.65 0.5 0.39
          0.65 0.5 0.39 1.3 0.5 0.78
          1.3 0.5 0.78 0.65 0.5 0.39
          0.65 0.5 0.39 1.3 0.5 0.78
          1.3 0.5 0.78 0.65 0.5 0.39
          0.65 0.5 0.39 1.3 0.5 0.78
          1.3 0.5 0.78 0.65 0.5 0.39
          0.65 0.5 0.39 1.3 0.5 0.78
          1.3 0.5 0.78 0.65 0.5 0.39
          0.65 0.5 0.39 1.2 0.5 0.72
          1.3 0.5 0.78 0.65 0.5 0.39
          1.3 0.5 0.78 1.3 0.5 0.78
          1.3 0.5 0.78 0.65 0.5 0.39
          0.65 0.5 0.39 1.3 0.5 0.78
          1.3 0.5 0.78 0.65 0.5 0.39
          0.65 0.5 0.39 1.3 0.5 0.78
          1.3 0.5 0.78 0.65 0.5 0.39
          0.65 0.5 0.39 1.3 0.5 0.78
          1.3 0.5 0.78 0.65 0.5 0.39
          0.65 0.5 0.39 1.3 0.5 0.78
          1.2 0.5 0.72 1.2 0.5 0.72
          1.2 0.5 0.72 1.2 0.5 0.72
          0.6 0.5 0.36 0.6 0.5 0.36
          1.2 0.5 0.72 1.2 0.5 0.72
          0.6 0.5 0.36 0.6 0.5 0.36
          1.2 0.5 0.72 1.2 0.5 0.72
          0.6 0.5 0.36 0.6 0.5 0.36
          1.2 0.5 0.72 1.2 0.5 0.72
          0.6 0.5 0.36 0.6 0.5 0.36
          1.4 0.5 0.84 1.4 0.5 0.84
          0.7 0.5 0.42 0.7 0.5 0.42
          1.4 0.5 0.84 1.4 0.5 0.84
          0.7 0.5 0.42 0.7 0.5 0.42
          1.2 0.5 0.72 1.2 0.5 0.72
          0.6 0.5 0.36 0.6 0.5 0.36
          1.2 0.5 0.72 1.2 0.5 0.72
          0.6 0.5 0.36 0.6 0.5 0.36
          1.2 0.5 0.72 0.6 0.5 0.36
          1.2 0.5 0.72 1.2 0.5 0.72
          0.6 0.5 0.36 0.6 0.5 0.36
          1.2 0.5 0.72 1.2 0.5 0.72
          0.6 0.5 0.36 0.6 0.5 0.36
          1.2 0.5 0.72 1.2 0.5 0.72
          0.6 0.5 0.36 0.6 0.5 0.36
          1.2 0.5 0.72 1.2 0.5 0.72
          0.6 0.5 0.36 0.6 0.5 0.36
          1.2 0.5 0.72 1.2 0.5 0.72
          0.6 0.5 0.36 0.6 0.5 0.36
          1.3 0.5 0.78 1.3 0.5 0.78
          0.65 0.5 0.39 0.65 0.5 0.39
          1.3 0.5 0.78 1.3 0.5 0.78
          0.65 0.5 0.39 0.65 0.5 0.39
          1.4 0.5 0.84 1.4 0.5 0.84
          1.4 0.5 0.84 0.7 0.5 0.42
          0.7 0.5 0.42 1.4 0.5 0.84
          1.4 0.5 0.84 0.7 0.5 0.42
          0.7 0.5 0.42 1.4 0.5 0.84
          1.4 0.5 0.84 1.4 0.5 0.84
          0.7 0.5 0.42 0.7 0.5 0.42
          1.4 0.5 0.84 1.4 0.5 0.84
          0.7 0.5 0.42 0.7 0.5 0.42
          1.4 0.5 0.84 1.4 0.5 0.84
          0.7 0.5 0.42 0.7 0.5 0.42
          1.4 0.5 0.84 1.4 0.5 0.84
          0.7 0.5 0.42 0.7 0.5 0.42
          1.4 0.5 0.84 1.4 0.5 0.84
          0.7 0.5 0.42 0.7 0.5 0.42
          1.4 0.5 0.84 1.4 0.5 0.84
          0.7 0.5 0.42 0.7 0.5 0.42
          1.4 0.5 0.84 0.7 0.5 0.42
          1.4 0.5 0.84 0.7 0.5 0.42
          1.4 0.5 0.84 1.4 0.5 0.84
          0.7 0.5 0.42 0.7 0.5 0.42
          1.4 0.5 0.84 1.4 0.5 0.84
          0.7 0.5 0.42 0.7 0.5 0.42
          1.4 0.5 0.84 1.4 0.5 0.84
          0.7 0.5 0.42 0.7 0.5 0.42
          1.4 0.5 0.84 1.4 0.5 0.84
          0.7 0.5 0.42 0.7 0.5 0.42
          1.4 0.5 0.84 1.4 0.5 0.84
          0.7 0.5 0.42 0.7 0.5 0.42
          1.4 0.5 0.84 1.4 0.5 0.84
          0.7 0.5 0.42 0.7 0.5 0.42
          1.2 0.5 0.72 1.2 0.5 0.72
          0.6 0.5 0.36 1.2 0.5 0.72
          1.2 0.5 0.72 0.6 0.5 0.36
          0.6 0.5 0.36 1.2 0.5 0.72
          1.2 0.5 0.72 0.6 0.5 0.36
          0.6 0.5 0.36 1.2 0.5 0.72
          1.2 0.5 0.72 0.6 0.5 0.36
          0.6 0.5 0.36 1.2 0.5 0.72
          1.2 0.5 0.72 0.6 0.5 0.36
          0.6 0.5 0.36 1.2 0.5 0.72
          1.2 0.5 0.72 0.6 0.5 0.36
          0.6 0.5 0.36 1.2 0.5 0.72
          1.2 0.5 0.72 0.6 0.5 0.36
          0.6 0.5 0.36 1.2 0.5 0.72
          1.2 0.5 0.72 1.2 0.5 0.72
          0.6 0.5 0.36 0.6 0.5 0.36
          1.2 0.5 0.72 1.2 0.5 0.72
          0.6 0.5 0.36 1.2 0.5 0.72
          0.6 0.5 0.36 1.2 0.5 0.72
          0.6 0.5 0.36 1.2 0.5 0.72
          1.2 0.5 0.72 0.6 0.5 0.36
          0.6 0.5 0.36 1.2 0.5 0.72
          1.2 0.5 0.72 0.6 0.5 0.36
          0.6 0.5 0.36 1.15 0.5 0.69
          1.3 0.5 0.78 1.3 0.5 0.78
        </DataArray>
        <DataArray type="Float64" Name="Axis a" NumberOfComponents="3" format="ascii" RangeMin="1.923869419" RangeMax="3.8462926819">
          2.250054 1.570796 0.6792575 2.536687 1.570796 0.9658907
          0.8923825 1.570796 0.6784139 1.576513 1.570796 0.005716666
          1.523425 1.570796 0.0473713 2.090659 1.570796 2.62173
          2.128077 1.570796 0.5572808 0.0678937 1.570796 1.502903
          2.612647 1.570796 1.041851 2.415391 1.570796 0.8445944
          0.1671495 1.570796 1.737946 1.619873 1.570796 3.092516
          2.141365 1.570796 2.571024 1.931351 1.570796 0.3605547
          0.1425534 1.570796 1.71335 1.745368 1.570796 0.1745718
          0.3986665 1.570796 1.17213 0.9676997 1.570796 0.6030967
          3.118077 1.570796 1.547281 1.49436 1.570796 3.065156
          0.4128154 1.570796 1.157981 2.133339 1.570796 2.57905
          0.2662887 1.570796 1.304508 2.284679 1.570796 2.42771
          1.672986 1.570796 3.039403 2.938739 1.570796 1.77365
          0.823033 1.570796 0.7477634 0.1295131 1.570796 1.700309
          2.937745 1.570796 1.774644 0.2129436 1.570796 1.357853
          2.299283 1.570796 0.7284862 0.5724923 1.570796 0.998304
          0.5117915 1.570796 1.059005 1.63965 1.570796 3.072739
          1.601294 1.570796 0.030498 0.5073658 1.570796 2.078162
          1.056485 1.570796 0.5143117 0.002539367 1.570796 1.573336
          2.44726 1.570796 2.265129 0.7156693 1.570796 2.286466
          3.086647 1.570796 1.515851 2.522415 1.570796 2.189974
          2.780088 1.570796 1.209292 1.926543 1.570796 0.3557464
          2.536798 1.570796 0.9660013 1.938319 1.570796 2.77407
          3.072338 1.570796 1.501542 0.2593404 1.570796 1.830137
          0.8221495 1.570796 2.392946 0.9001353 1.570796 2.470932
          3.137984 1.570796 1.567188 2.526455 1.570796 2.185934
          0.2415509 1.570796 1.812347 0.4275728 1.570796 1.998369
          1.297071 1.570796 2.867867 0.4951957 1.570796 1.075601
          0.4306398 1.570796 2.001436 2.094099 1.570796 2.61829
          0.4566381 1.570796 1.114158 2.630853 1.570796 2.081536
          2.141521 1.570796 0.5707243 2.301979 1.570796 0.7311822
          1.967234 1.570796 2.745155 2.456242 1.570796 2.256147
          1.532946 1.570796 3.103743 1.162365 1.570796 2.733161
          0.8417305 1.570796 2.412527 0.421604 1.570796 1.9924
          2.993142 1.570796 1.422346 0.1475683 1.570796 1.423228
          0.9079813 1.570796 0.6628151 1.200659 1.570796 2.771456
          0.7583772 1.570796 0.8124191 0.5969127 1.570796 2.167709
          1.75621 1.570796 0.1854136 0.7306699 1.570796 2.301466
          2.846535 1.570796 1.275739 1.384864 1.570796 0.1859327
          1.485108 1.570796 0.08568858 1.209154 1.570796 0.3616425
          2.960302 1.570796 1.389506 2.558883 1.570796 0.988087
          1.267804 1.570796 0.3029921 0.4972729 1.570796 2.068069
          1.273679 1.570796 2.844476 0.9563464 1.570796 2.527143
          0.4539522 1.570796 2.024749 1.571038 1.570796 0.0002417276
          1.392758 1.570796 0.1780382 1.675638 1.570796 0.1048419
          2.624786 1.570796 2.087603 0.9027599 1.570796 2.473556
          3.036452 1.570796 1.675937 2.91118 1.570796 1.340384
          0.6200133 1.570796 2.19081 2.907764 1.570796 1.336967
          3.002423 1.570796 1.431627 0.8004428 1.570796 2.371239
          1.857299 1.570796 2.85509 0.4596387 1.570796 2.030435
          1.581228 1.570796 3.131161 2.184438 1.570796 0.6136417
          0.8726455 1.570796 0.6981508 0.2506313 1.570796 1.821428
          1.009291 1.570796 0.5615054 1.925075 1.570796 2.787314
          0.04031007 1.570796 1.611106 2.874509 1.570796 1.83788
          0.1497092 1.570796 1.720506 1.629721 1.570796 3.082668
          3.121024 1.570796 1.550228 1.298216 1.570796 0.2725805
          0.2628226 1.570796 1.307974 0.8430132 1.570796 0.7277831
          1.828247 1.570796 2.884142 2.487907 1.570796 2.224482
          0.4897692 1.570796 2.060566 1.873991 1.570796 0.3031947
          0.06967724 1.570796 1.640474 1.133133 1.570796 0.4376634
          2.637624 1.570796 2.074765 3.067723 1.570796 1.644665
          0.0923436 1.570796 1.478453 1.961659 1.570796 2.75073
          0.1551817 1.570796 1.725978 2.459015 1.570796 2.253374
          2.016879 1.570796 0.4460822 0.8081135 1.570796 2.37891
          2.709753 1.570796 2.002636 2.716336 1.570796 1.14554
          1.005389 1.570796 2.576185 1.127711 1.570796 0.4430852
          1.74113 1.570796 0.1703336 0.722267 1.570796 0.8485293
          1.96116 1.570796 0.3903638 0.2599318 1.570796 1.310865
          1.380456 1.570796 2.951252 0.1303202 1.570796 1.440476
          1.153706 1.570796 2.724503 1.271912 1.570796 2.842708
          2.886223 1.570796 1.826166 2.10838 1.570796 0.5375837
          1.502097 1.570796 3.072894 1.743212 1.570796 0.1724158
          1.277763 1.570796 0.2930332 0.6378082 1.570796 0.9329881
          2.042531 1.570796 2.669858 2.298891 1.570796 2.413498
          2.071319 1.570796 0.5005223 1.128137 1.570796 2.698933
          2.141631 1.570796 2.570758 1.113198 1.570796 0.4575984
          0.9150567 1.570796 2.485853 2.384667 1.570796 2.327722
          0.9621194 1.570796 0.6086769 2.551238 1.570796 0.9804414
          3.098412 1.570796 1.613977 2.364289 1.570796 2.3481
          0.9348507 1.570796 2.505647 0.4024753 1.570796 1.168321
          2.864193 1.570796 1.293396 1.197193 1.570796 2.767989
          2.439414 1.570796 0.868618 1.667496 1.570796 0.09669985
          2.47066 1.570796 2.241729 0.8111203 1.570796 0.759676
          2.533312 1.570796 0.9625158 1.495623 1.570796 3.066419
          0.05855662 1.570796 1.51224 0.4344642 1.570796 2.005261
          2.253718 1.570796 2.458671 0.7112272 1.570796 0.8595691
          1.090235 1.570796 2.661031 2.064572 1.570796 2.647817
          2.630743 1.570796 2.081646 0.9142658 1.570796 2.485062
          0.02355135 1.570796 1.547245 1.80239 1.570796 2.909999
          2.657712 1.570796 1.086916 2.268266 1.570796 2.444123
          0.6124387 1.570796 2.183235 2.575037 1.570796 2.137352
          0.5566221 1.570796 1.014174 2.442483 1.570796 2.269906
          0.3514948 1.570796 1.219301 0.01679747 1.570796 1.553999
          0.2239905 1.570796 1.794787 1.546716 1.570796 0.02408045
          2.823088 1.570796 1.889301 1.861106 1.570796 2.851283
          0.1842109 1.570796 1.386585 2.650411 1.570796 1.079614
          1.465117 1.570796 3.035914 0.5333713 1.570796 2.104168
          3.003071 1.570796 1.709318 1.530883 1.570796 3.101679
          0.1205393 1.570796 1.450257 2.652746 1.570796 1.08195
          1.232737 1.570796 2.803533 2.25179 1.570796 2.460599
          0.3585449 1.570796 1.212251 1.188903 1.570796 2.7597
          0.6872808 1.570796 0.8835156 1.071102 1.570796 0.4996946
          1.100934 1.570796 2.67173 1.143929 1.570796 0.4268669
          2.378047 1.570796 0.8072511 0.102812 1.570796 1.673608
          2.772505 1.570796 1.939884 1.268622 1.570796 2.839418
          0.2927456 1.570796 1.278051 2.92066 1.570796 1.791729
          1.128898 1.570796 2.699695 1.719261 1.570796 2.993128
          1.403396 1.570796 2.974192 2.455717 1.570796 2.256672
          1.162323 1.570796 2.733119 1.779471 1.570796 2.932918
          2.489527 1.570796 0.9187311 0.9093805 1.570796 2.480177
          2.633009 1.570796 1.062213 3.018901 1.570796 1.693488
          2.257266 1.570796 0.6864697 2.684297 1.570796 1.1135
          3.014075 1.570796 1.443279 2.680453 1.570796 2.031936
          0.5277618 1.570796 2.098558 0.3053352 1.570796 1.876132
          2.400886 1.570796 0.8300895 1.643799 1.570796 0.07300311
          1.178971 1.570796 2.749768 3.121214 1.570796 1.550417
          2.992464 1.570796 1.421667 2.570487 1.570796 2.141902
          2.810935 1.570796 1.901454 0.5592329 1.570796 1.011563
          0.344429 1.570796 1.915225 2.714617 1.570796 1.997772
          1.580491 1.570796 3.131898 2.446459 1.570796 0.8756627
          2.554495 1.570796 0.9836982 3.138263 1.570796 1.574126
          1.48499 1.570796 3.055786 0.6861308 1.570796 0.8846656
          0.5515446 1.570796 1.019252 0.06108629 1.570796 1.631883
          2.882671 1.570796 1.829718 0.6263264 1.570796 2.197123
          1.723512 1.570796 2.988877 0.2901087 1.570796 1.280688
          1.312108 1.570796 2.882904 0.3553755 1.570796 1.926172
          0.9314146 1.570796 2.502211 0.4018396 1.570796 1.168957
          2.242359 1.570796 2.47003 1.885323 1.570796 2.827066
          1.632569 1.570796 0.06177277 1.552623 1.570796 0.01817357
          2.224645 1.570796 0.6538486 1.023231 1.570796 0.5475651
          0.2214933 1.570796 1.79229 1.239707 1.570796 2.810503
          0.4547913 1.570796 1.116005 2.579004 1.570796 1.008208
          0.5477842 1.570796 1.023012 2.341138 1.570796 2.371251
          2.555019 1.570796 0.9842225 0.8305883 1.570796 0.7402081
          1.566515 1.570796 0.004281654 2.153996 1.570796 2.558393
          2.141436 1.570796 0.5706395 2.375206 1.570796 2.337183
          2.173775 1.570796 0.6029791 2.074518 1.570796 2.637871
          0.4661637 1.570796 1.104633 3.068986 1.570796 1.498189
          1.166706 1.570796 2.737502 2.113424 1.570796 2.598965
          1.470563 1.570796 3.041359 2.365255 1.570796 2.347134
          1.266879 1.570796 2.837676 2.585872 1.570796 1.015076
          3.097299 1.570796 1.526503 0.2315902 1.570796 1.802386
          0.9908647 1.570796 0.5799317 0.6521583 1.570796 2.222955
          1.450114 1.570796 0.1206824 2.310723 1.570796 2.401666
          0.3503879 1.570796 1.921184 1.765703 1.570796 0.1949065
          2.805455 1.570796 1.906934 1.152051 1.570796 2.722847
          0.4389286 1.570796 1.131868 0.2938053 1.570796 1.864602
          1.711582 1.570796 3.000807 1.697123 1.570796 0.1263267
          0.8303443 1.570796 2.401141 1.761093 1.570796 2.951295
          2.09854 1.570796 0.5277434 0.8259445 1.570796 2.396741
          2.684599 1.570796 1.113802 2.432392 1.570796 0.8615957
          3.074484 1.570796 1.637905 1.388201 1.570796 2.958997
          1.819932 1.570796 0.2491352 2.040147 1.570796 0.4693511
          1.682226 1.570796 3.030163 0.8609969 1.570796 2.431793
          1.77627 1.570796 2.936119 3.047134 1.570796 1.476337
          0.007425101 1.570796 1.578221 1.895283 1.570796 2.817106
          2.901418 1.570796 1.810971 2.461331 1.570796 2.251058
          0.777026 1.570796 2.347822 2.334739 1.570796 0.7639428
          0.1170595 1.570796 1.453737 2.796845 1.570796 1.915544
          1.916102 1.570796 0.3453059 2.205257 1.570796 0.6344608
          1.984186 1.570796 0.4133898 2.959947 1.570796 1.752442
          1.373067 1.570796 2.943863 2.182081 1.570796 2.530308
          2.248017 1.570796 0.6772204 2.533055 1.570796 2.179334
          1.189817 1.570796 2.760613 0.8481962 1.570796 0.7226002
          0.8770784 1.570796 0.6937179 3.003876 1.570796 1.708513
          0.60308 1.570796 0.9677163 1.767835 1.570796 0.1970386
          2.973351 1.570796 1.402554 1.54556 1.570796 3.116356
          0.2441596 1.570796 1.814956 0.6559328 1.570796 2.226729
          2.894007 1.570796 1.323211 0.04977311 1.570796 1.521023
          2.691294 1.570796 1.120497 1.159621 1.570796 0.4111756
          2.100276 1.570796 0.5294802 2.511268 1.570796 0.9404718
          0.2570951 1.570796 1.313701 0.2035146 1.570796 1.774311
          2.752438 1.570796 1.181641 2.381715 1.570796 0.810919
          0.5131786 1.570796 1.057618 2.476041 1.570796 0.9052445
          1.076028 1.570796 0.4947685 1.942793 1.570796 2.769596
          0.532642 1.570796 2.103438 2.152629 1.570796 2.55976
          0.3567987 1.570796 1.927595 2.167169 1.570796 0.5963728
          0.3900577 1.570796 1.180739 1.235097 1.570796 2.805894
          0.2331005 1.570796 1.337696 2.755612 1.570796 1.956777
          0.5312134 1.570796 2.10201 3.12096 1.570796 1.550163
          1.136989 1.570796 2.707785 0.6709638 1.570796 2.24176
          0.9581734 1.570796 0.6126229 2.473191 1.570796 0.902395
          0.3399633 1.570796 1.230833 1.973966 1.570796 2.738423
          3.099452 1.570796 1.528656 0.9516738 1.570796 0.6191225
          2.096521 1.570796 0.5257246 0.4676499 1.570796 1.103146
          0.2343677 1.570796 1.336429 1.229747 1.570796 2.800544
          0.2974331 1.570796 1.273363 0.03692205 1.570796 1.533874
          0.7371856 1.570796 0.8336107 0.8554311 1.570796 2.426227
          2.353059 1.570796 2.35933 0.2575562 1.570796 1.31324
          2.865458 1.570796 1.294662 2.221153 1.570796 2.491236
          0.3491699 1.570796 1.919966 0.00199729 1.570796 1.568799
          2.887683 1.570796 1.824706 0.308817 1.570796 1.261979
          1.581615 1.570796 0.01081891 0.187431 1.570796 1.758227
          0.7345209 1.570796 2.305317 2.685584 1.570796 1.114788
          1.323676 1.570796 2.894472 2.597135 1.570796 2.115254
          0.241284 1.570796 1.329512 0.09953855 1.570796 1.471258
          2.361816 1.570796 0.7910201 1.248864 1.570796 0.3219321
          0.02682713 1.570796 1.597623 0.5299416 1.570796 1.040855
          0.7946976 1.570796 0.7760987 2.014659 1.570796 0.4438626
          0.5630157 1.570796 1.007781 0.5436551 1.570796 1.027141
          2.017426 1.570796 2.694963 0.1192288 1.570796 1.451568
          2.139454 1.570796 0.5686576 0.4219858 1.570796 1.992782
          1.705641 1.570796 3.006748 1.124583 1.570796 2.69538
          2.685493 1.570796 1.114697 2.854049 1.570796 1.85834
          2.349059 1.570796 0.7782631 3.126045 1.570796 1.586343
          2.672886 1.570796 1.10209 2.438508 1.570796 0.867712
        </DataArray>
        <DataArray type="Float64" Name="Axis b" NumberOfComponents="3" format="ascii" RangeMin="2.2214374714" RangeMax="2.2214452496">
          1.570796 4.61936e-07 1.570796 1.570797 1.803533e-06 1.570798
          1.570799 2.865908e-06 1.570795 1.570798 1.803533e-06 1.570798
          1.570798 2.756634e-06 1.570799 1.570794 2.349616e-06 1.570795
          1.570798 1.803533e-06 1.570797 1.570795 1.366445e-06 1.570796
          1.570796 1.7048e-06 1.570798 1.570797 7.483291e-07 1.570796
          1.570796 4.61936e-07 1.570796 1.570796 1.366445e-06 1.570795
          1.570796 4.61936e-07 1.570796 1.570796 7.483291e-07 1.570796
          1.570798 2.135394e-06 1.570795 1.570797 2.349616e-06 1.570794
          1.570795 1.366445e-06 1.570795 1.570797 4.61936e-07 1.570797
          1.570797 1.366364e-06 1.570798 1.570797 9.520431e-07 1.570797
          1.570796 4.61936e-07 1.570796 1.570796 4.61936e-07 1.570796
          1.570794 2.678481e-06 1.570795 1.570797 9.520431e-07 1.570797
          1.570798 1.7048e-06 1.570796 1.570797 7.481808e-07 1.570796
          1.570797 7.483291e-07 1.570796 1.570796 4.61936e-07 1.570796
          1.570796 4.61936e-07 1.570796 1.570796 3.394195e-06 1.570793
          1.570796 4.61936e-07 1.570796 1.570797 1.366445e-06 1.570795
          1.570796 1.366445e-06 1.570798 1.570795 1.803533e-06 1.570795
          1.570797 9.520431e-07 1.570797 1.570795 1.876304e-06 1.570795
          1.570794 2.678481e-06 1.570794 1.570797 1.366445e-06 1.570795
          1.570797 1.803533e-06 1.570798 1.570794 2.678481e-06 1.570795
          1.570797 2.693073e-06 1.570799 1.570795 1.366445e-06 1.570797
          1.570796 1.487805e-06 1.570798 1.570796 4.61936e-07 1.570796
          1.570797 7.483291e-07 1.570796 1.570796 4.61936e-07 1.570797
          1.570796 7.483291e-07 1.570797 1.570797 7.483291e-07 1.570796
          1.570798 2.984327e-06 1.570794 1.570795 1.487805e-06 1.570797
          1.570798 1.7048e-06 1.570796 1.570797 1.803533e-06 1.570798
          1.570794 2.349616e-06 1.570796 1.570797 7.481808e-07 1.570797
          1.570794 2.678481e-06 1.570797 1.570796 1.7048e-06 1.570798
          1.570795 2.756634e-06 1.570799 1.570797 7.483291e-07 1.570796
          1.570796 4.61936e-07 1.570796 1.570796 7.483291e-07 1.570797
          1.570797 9.520431e-07 1.570797 1.570798 1.7048e-06 1.570796
          1.570797 1.803533e-06 1.570798 1.570797 7.483291e-07 1.570796
          1.570797 7.483291e-07 1.570797 1.570797 1.803533e-06 1.570798
          1.570797 7.483291e-07 1.570796 1.570796 7.481808e-07 1.570796
          1.570795 1.7048e-06 1.570797 1.570796 4.61936e-07 1.570796
          1.570797 2.135394e-06 1.570794 1.570796 7.481808e-07 1.570797
          1.570796 1.876304e-06 1.570794 1.570795 1.366445e-06 1.570795
          1.570797 7.483291e-07 1.570796 1.570795 2.349616e-06 1.570795
          1.570796 7.483291e-07 1.570797 1.570797 7.483291e-07 1.570796
          1.570797 7.483291e-07 1.570796 1.570796 4.61936e-07 1.570796
          1.570796 4.61936e-07 1.570796 1.570799 2.366237e-06 1.570797
          1.570796 4.61936e-07 1.570796 1.570796 2.422207e-06 1.570794
          1.570796 1.366445e-06 1.570795 1.570795 1.366445e-06 1.570796
          1.570796 4.61936e-07 1.570796 1.570797 1.487805e-06 1.570795
          1.570797 7.483291e-07 1.570796 1.570796 4.61936e-07 1.570796
          1.570797 7.481808e-07 1.570796 1.570797 9.520431e-07 1.570797
          1.570797 7.481808e-07 1.570796 1.570797 9.520431e-07 1.570797
          1.570796 7.483291e-07 1.570797 1.570796 7.481808e-07 1.570797
          1.570797 9.519265e-07 1.570797 1.570797 7.483291e-07 1.570796
          1.570796 4.61936e-07 1.570796 1.570796 4.61936e-07 1.570796
          1.570796 7.483291e-07 1.570797 1.570798 2.135394e-06 1.570798
          1.570796 1.487805e-06 1.570795 1.570795 1.366445e-06 1.570797
          1.570796 9.520431e-07 1.570797 1.570796 7.483291e-07 1.570797
          1.570797 1.48773e-06 1.570795 1.570798 1.7048e-06 1.570797
          1.570796 1.876363e-06 1.570798 1.570797 7.483291e-07 1.570796
          1.570796 4.61936e-07 1.570796 1.570796 4.61936e-07 1.570796
          1.570797 4.61936e-07 1.570796 1.570796 4.61936e-07 1.570796
          1.570795 1.487805e-06 1.570797 1.570796 1.7048e-06 1.570798